# vtk DataFile Version 3.0
vtk output
ASCII
DATASET POLYDATA
POINTS 8195 float
-17.0369 -24.1666 44.4173 -17.2908 -23.7735 44.2413 -17.5073 -23.3605 44.0643 
-17.6725 -22.9229 43.8875 -17.8382 -22.4842 43.7141 -18.0076 -22.0454 43.5446 
-18.184 -21.6102 43.3731 -18.3697 -21.1813 43.1954 -18.5571 -20.753 43.018 
-18.7481 -20.3263 42.8407 -18.9475 -19.9027 42.6652 -19.1526 -19.4786 42.4977 
-19.3583 -19.0526 42.3359 -19.5642 -18.6231 42.1839 -19.7686 -18.1909 42.0377 
-19.9688 -17.7574 41.8892 -20.1677 -17.325 41.7363 -20.3622 -16.8942 41.5733 
-20.5439 -16.4659 41.3901 -20.7151 -16.0438 41.1839 -20.8834 -15.6235 40.9718 
-21.0476 -15.2057 40.7517 -21.2124 -14.7882 40.5313 -21.3771 -14.372 40.3085 
-21.5362 -13.9606 40.0735 -21.6845 -13.5596 39.8146 -21.823 -13.1692 39.5348 
-21.9534 -12.7885 39.2383 -22.0765 -12.4191 38.9246 -22.1956 -12.0507 38.6082 
-22.3064 -11.6731 38.2998 -22.4142 -11.2907 37.9963 -22.5163 -10.8983 37.7039 
-22.6086 -10.5147 37.3968 -22.6976 -10.1389 37.0795 -22.7803 -9.77861 36.7429 
-22.8556 -9.43563 36.387 -22.9282 -9.0914 36.0317 -23.0017 -8.7403 35.6835 
-23.0764 -8.37595 35.3495 -23.1501 -7.99973 35.0286 -23.2187 -7.61376 34.7184 
-23.2768 -7.22519 34.4091 -23.3355 -6.83882 34.0972 -23.3985 -6.45542 33.7826 
-23.4736 -6.07239 33.4702 -23.5714 -5.68831 33.1658 -23.7035 -5.30858 32.8685 
-23.8534 -4.94118 32.5643 -24.0017 -4.58052 32.2515 -24.1289 -4.23332 31.915 
-24.2318 -3.88724 31.5691 -24.332 -3.54444 31.2193 -24.433 -3.20967 30.8619 
-24.5595 -2.88721 30.5013 -24.6963 -2.56539 30.1441 -24.8497 -2.24259 29.7946 
-25.0212 -1.91165 29.4613 -25.1982 -1.5779 29.1339 -25.3859 -1.23993 28.8168 
-25.5734 -0.901445 28.5002 -25.7453 -0.565798 28.1725 -25.8575 -0.240846 27.8094 
-25.9493 0.0809767 27.4386 -26.0042 0.396178 27.0548 -26.03 0.705366 26.6629 
-26.0649 1.00838 26.2667 -26.1088 1.30995 25.8704 -26.1744 1.60856 25.4748 
-26.244 1.90491 25.0782 -26.3201 2.19537 24.6784 -26.388 2.48221 24.2745 
-26.4504 2.769 23.8698 -26.503 3.05505 23.4631 -26.5446 3.34001 23.0543 
-26.5838 3.62558 22.6458 -26.6143 3.90585 22.2329 -26.6422 4.1817 21.8168 
-26.6655 4.44707 21.3938 -26.6854 4.69833 20.962 -26.6971 4.93167 20.52 
-26.7011 5.16962 20.0804 -26.6911 5.41368 19.6441 -26.6694 5.65763 19.2083 
-26.6383 5.89662 18.7702 -26.6012 6.11762 18.3232 -26.566 6.33098 17.8725 
-26.5363 6.53021 17.4149 -26.5163 6.71371 16.9503 -26.4997 6.90032 16.4867 
-26.4855 7.09579 16.0268 -26.4766 7.30757 15.574 -26.4741 7.53258 15.1276 
-26.4792 7.76709 14.6861 -26.4885 8.00607 14.247 -26.4966 8.24447 13.8076 
-26.5021 8.48082 13.367 -26.5076 8.71797 12.9268 -26.5118 8.96136 12.4901 
-26.514 9.20836 12.0554 -26.5118 9.46172 11.6244 -26.5043 9.71992 11.1963 
-26.4912 9.98161 10.7704 -26.4671 10.2378 10.3417 -26.4372 10.4887 9.91035 
-26.3935 10.7296 9.47448 -26.3325 10.9616 9.03592 -26.2415 11.1837 8.5973 
-26.1445 11.4106 8.1625 -26.0343 11.6456 7.73525 -25.8997 11.8874 7.31881 
-25.7524 12.1296 6.90696 -25.5952 12.3708 6.49813 -25.4346 12.608 6.08837 
-25.2662 12.8349 5.67596 -25.0892 13.0477 5.25968 -24.9025 13.2426 4.83894 
-24.693 13.4066 4.41558 -24.4739 13.5624 3.99423 -24.2278 13.6941 3.57939 
-23.9696 13.818 3.16954 -23.7059 13.9439 2.76392 -23.4067 14.0663 2.38248 
-23.0904 14.1815 2.01341 -22.7433 14.2775 1.66725 -22.3717 14.3439 1.34023 
-21.9847 14.3764 1.0253 -21.5973 14.4041 0.710482 -21.2054 14.4112 0.400061 
-20.8119 14.4095 0.0917724 -20.4146 14.383 -0.210668 -20.0179 14.3526 -0.513448 
-19.6255 14.3157 -0.821054 -19.244 14.2736 -1.14141 -18.8866 14.227 -1.48789 
-18.5252 14.176 -1.82961 -18.1618 14.1179 -2.16802 -17.7973 14.0417 -2.50156 
-17.4374 13.94 -2.8331 -17.087 13.808 -3.164 -16.7423 13.6604 -3.49479 
-16.4073 13.511 -3.83451 -16.0797 13.3556 -4.17877 -15.7564 13.1908 -4.52273 
-15.4395 13.0139 -4.86651 -15.1267 12.8303 -5.21065 -14.828 12.6411 -5.56428 
-14.5637 12.468 -5.95141 -14.3199 12.3074 -6.35705 -14.0897 12.1631 -6.77663 
-13.8653 12.0417 -7.20638 -13.6419 11.9336 -7.64047 -13.4392 11.8306 -8.08576 
-13.2976 11.6909 -8.54374 -13.1944 11.5184 -9.00098 -13.1089 11.3289 -9.4557 
-13.0455 11.1078 -9.8996 -12.9752 10.8718 -10.3346 -12.8947 10.6209 -10.7594 
-12.8015 10.3566 -11.1734 -12.7016 10.0862 -11.5819 -12.5914 9.81353 -11.9862 
-12.4735 9.55308 -12.3963 -12.3392 9.31326 -12.8136 -12.1798 9.10024 -13.2364 
-12.0065 8.90148 -13.6613 -11.8331 8.75052 -14.105 -11.6655 8.61263 -14.5555 
-11.5216 8.48992 -15.0181 -11.3871 8.37478 -15.4857 -11.2779 8.27783 -15.9639 
-11.207 8.16046 -16.4445 -11.1576 8.01516 -16.9197 -11.1186 7.85558 -17.392 
-11.0931 7.64654 -17.8454 -11.0694 7.44775 -18.3036 -11.0422 7.25654 -18.7647 
-11.0065 7.07118 -19.2277 -10.9655 6.88759 -19.6909 -10.9355 6.68358 -20.1462 
-10.9153 6.47207 -20.5988 -10.9359 6.24251 -21.0423 -10.9697 6.01575 -21.4867 
-11.0071 5.80912 -21.9402 -11.0285 5.61255 -22.3994 -11.0388 5.42043 -22.8609 
-11.0437 5.23038 -23.3233 -11.0474 5.04108 -23.7861 -11.0071 4.89386 -24.2617 
-10.947 4.75709 -24.7388 -10.821 4.64207 -25.2083 -10.674 4.53192 -25.6733 
-10.5092 4.4084 -26.1289 -10.3457 4.2769 -26.5827 -10.1878 4.14879 -27.0395 
-10.0332 4.02569 -27.4988 -9.90099 3.92535 -27.9703 -9.7762 3.82741 -28.4445 
-9.65095 3.72961 -28.9186 -9.5241 3.63128 -29.3921 -9.39319 3.53902 -29.8657 
-9.26556 3.46118 -30.3428 -9.13854 3.39268 -30.8215 -9.00937 3.32814 -31.3002 
-8.87848 3.26411 -31.7785 -8.74392 3.21602 -32.2576 -8.5996 3.18535 -32.7351 
-8.43685 3.17784 -33.2075 -8.26165 3.18297 -33.6758 -8.11536 3.20408 -34.153 
-8.00578 3.23636 -34.6394 -7.92704 3.28245 -35.1308 -7.863 3.33644 -35.6237 
-7.84432 3.43896 -36.112 -7.86909 3.58018 -36.5899 -7.94757 3.75378 -37.051 
-8.05504 3.94093 -37.502 -5.47883 25.8054 -9.75554 -5.52923 25.4057 -10.0499 
-5.56892 25.0379 -10.3855 -5.58678 24.6879 -10.7417 -5.5759 24.3433 -11.1036 
-5.52556 23.9935 -11.4573 -5.47601 23.6424 -11.8098 -5.43572 23.2831 -12.155 
-5.42149 22.9055 -12.4814 -5.44732 22.5045 -12.7775 -5.53541 22.0805 -13.0274 
-5.6363 21.654 -13.2675 -5.75673 21.2245 -13.4933 -5.87722 20.7952 -13.7197 
-5.98796 20.3656 -13.9502 -6.08933 19.9352 -14.1833 -6.17209 19.5031 -14.4207 
-6.23775 19.0691 -14.6601 -6.2759 18.6384 -14.9111 -6.30427 18.2133 -15.1723 
-6.30235 17.8064 -15.463 -6.287 17.408 -15.764 -6.25662 17.0183 -16.0758 
-6.1904 16.6601 -16.4177 -6.10143 16.3236 -16.7764 -5.98904 16.0093 -17.1481 
-5.86266 15.7064 -17.5254 -5.69022 15.4185 -17.8958 -5.50345 15.1301 -18.2589 
-5.29613 14.8264 -18.5976 -5.07106 14.5191 -18.9213 -4.81555 14.2172 -19.2263 
-4.53929 13.9215 -19.52 -4.24164 13.6197 -19.7848 -3.94976 13.3088 -20.0459 
-3.82099 12.9175 -20.3235 -3.75453 12.5039 -20.596 -3.69733 12.0845 -20.8621 
-3.63564 11.6643 -21.126 -3.55549 11.246 -21.3879 -3.39416 10.8502 -21.6375 
-3.0286 10.6453 -21.7865 -2.56678 10.5069 -21.8792 -10.9991 -29.6499 55.407 
-10.9987 -29.3653 54.9962 -10.9914 -29.0532 54.6056 -10.9875 -28.7422 54.2141 
-10.9921 -28.434 53.8205 -11.0265 -28.1328 53.4229 -11.075 -27.8389 53.0216 
-11.1601 -27.5744 52.6059 -11.2468 -27.3154 52.1871 -11.3401 -27.0716 51.7608 
-11.4447 -26.8506 51.325 -11.5638 -26.658 50.8796 -11.7119 -26.5156 50.4237 
-11.8821 -26.4036 49.9671 -12.064 -26.303 49.5126 -12.2666 -26.2207 49.0632 
-12.4933 -26.1507 48.6231 -12.7261 -26.0808 48.1862 -12.9706 -26.0114 47.7556 
-13.2261 -25.9438 47.3313 -13.4923 -25.8801 46.9129 -13.7809 -25.7954 46.5135 
-14.0767 -25.6909 46.1249 -14.3858 -25.5496 45.7588 -14.706 -25.3799 45.4147 
-15.0356 -25.1898 45.0907 -15.3808 -24.9848 44.7925 -15.7349 -24.7674 44.5145 
-16.0821 -24.5263 44.249 -16.4059 -24.2312 44.011 -16.693 -23.8832 43.7979 
-16.9417 -23.4991 43.5975 -17.1397 -23.0856 43.3978 -17.3303 -22.6644 43.2079 
-17.514 -22.2336 43.0329 -17.6988 -21.801 42.8636 -17.891 -21.3734 42.6897 
-18.0833 -20.9468 42.5136 -18.2768 -20.5209 42.337 -18.4736 -20.0971 42.159 
-18.6765 -19.6771 41.9791 -18.8838 -19.2566 41.8052 -19.0909 -18.8347 41.6346 
-19.2965 -18.4106 41.4678 -19.4981 -17.9859 41.2976 -19.6908 -17.5629 41.1133 
-19.879 -17.1404 40.9235 -20.0567 -16.7188 40.7221 -20.2199 -16.2988 40.5054 
-20.381 -15.8787 40.2872 -20.5415 -15.4573 40.0713 -20.7029 -15.0382 39.8514 
-20.8648 -14.6256 39.6204 -21.0211 -14.2309 39.3561 -21.1746 -13.8426 39.0814 
-21.3237 -13.4656 38.7889 -21.4665 -13.0993 38.4799 -21.6047 -12.7365 38.165 
-21.7261 -12.3844 37.8313 -21.8432 -12.0314 37.4972 -21.9534 -11.6722 37.1674 
-22.0597 -11.3008 36.8501 -22.1616 -10.909 36.5568 -22.2549 -10.5302 36.244 
-22.3364 -10.1677 35.9094 -22.4106 -9.81154 35.5666 -22.4686 -9.46489 35.2112 
-22.4946 -9.12227 34.8479 -22.5173 -8.77066 34.4932 -22.5399 -8.41651 34.141 
-22.5614 -8.05789 33.7932 -22.5793 -7.69597 33.4487 -22.5908 -7.33066 33.1075 
-22.609 -6.96465 32.7674 -22.6616 -6.59726 32.4324 -22.7295 -6.23209 32.0981 
-22.8273 -5.87297 31.7645 -22.9522 -5.52869 31.4242 -23.0695 -5.18883 31.0768 
-23.1709 -4.8566 30.7174 -23.2789 -4.52703 30.3572 -23.3983 -4.19753 30.0008 
-23.5504 -3.87021 29.6548 -23.7139 -3.54456 29.3126 -23.8912 -3.21803 28.978 
-24.0646 -2.87845 28.6546 -24.2381 -2.54654 28.3234 -24.4092 -2.21572 27.9898 
-24.5733 -1.88941 27.6484 -24.7282 -1.56482 27.3012 -24.8576 -1.24489 26.9398 
-24.9382 -0.938112 26.5533 -25.0195 -0.637819 26.162 -25.1116 -0.355379 25.7598 
-25.2084 -0.0739458 25.358 -25.3121 0.206633 24.9574 -25.4143 0.491377 24.5593 
-25.5042 0.782637 24.1632 -25.5711 1.08441 23.7704 -25.6077 1.39479 23.3801 
-25.639 1.70602 22.99 -25.6576 2.0179 22.5997 -25.6746 2.32847 22.2082 
-25.6867 2.63669 21.8147 -25.69 2.94285 21.4195 -25.6736 3.24734 21.0232 
-25.6439 3.55102 20.6271 -25.6136 3.85563 20.2318 -25.5822 4.16124 19.8373 
-25.5506 4.46651 19.4425 -25.5196 4.77061 19.0469 -25.4853 5.07047 18.6482 
-25.4351 5.34858 18.2358 -25.3797 5.61819 17.8185 -25.3159 5.87424 17.3938 
-25.2483 6.12275 16.9653 -25.1855 6.37188 16.5363 -25.1313 6.63121 16.1123 
-25.076 6.89419 15.6907 -25.0204 7.16351 15.2731 -24.9681 7.43709 14.8579 
-24.9271 7.71049 14.4413 -24.8894 7.97873 14.0211 -24.8553 8.23262 13.5918 
[...]
POINT_DATA 8195
TENSORS Tensors_ float
0.000781113 -7.36559e-005 9.98154e-005 -7.36559e-005 0.00078869 -2.37478e-005 9.98154e-005 -2.37478e-005 0.000663773 
0.000693248 -7.30264e-005 7.78598e-005 -7.30264e-005 0.000789355 -5.31725e-005 7.78598e-005 -5.31725e-005 0.000629199 
0.000620621 -7.68441e-005 6.629e-005 -7.68441e-005 0.000796174 -7.99876e-005 6.629e-005 -7.99876e-005 0.000603151 
0.000554679 -9.20369e-005 6.60366e-005 -9.20369e-005 0.000795276 -9.72961e-005 6.60366e-005 -9.72961e-005 0.000566901 
0.000494318 -0.000115611 7.20118e-005 -0.000115611 0.000787498 -0.000108935 7.20118e-005 -0.000108935 0.000520774 
0.000450081 -0.000141412 8.16691e-005 -0.000141412 0.000786328 -0.000124182 8.16691e-005 -0.000124182 0.000485149 
0.000421665 -0.000169441 9.44141e-005 -0.000169441 0.000791116 -0.000145021 9.44141e-005 -0.000145021 0.000461183 
0.000407687 -0.000189203 0.000101004 -0.000189203 0.000792909 -0.0001603 0.000101004 -0.0001603 0.000448937 
0.000395226 -0.000200558 9.90296e-005 -0.000200558 0.000784942 -0.000164574 9.90296e-005 -0.000164574 0.000438467 
0.000381157 -0.000213061 9.66371e-005 -0.000213061 0.000773152 -0.000169838 9.66371e-005 -0.000169838 0.000428673 
0.000368944 -0.000225541 9.11888e-005 -0.000225541 0.000751362 -0.000170974 9.11888e-005 -0.000170974 0.000412196 
0.000366925 -0.000231243 8.66246e-005 -0.000231243 0.000740468 -0.000160454 8.66246e-005 -0.000160454 0.000403134 
0.000368666 -0.000232177 8.16407e-005 -0.000232177 0.000747346 -0.000146197 8.16407e-005 -0.000146197 0.000403893 
0.000368806 -0.000232729 7.78119e-005 -0.000232729 0.000755088 -0.000135802 7.78119e-005 -0.000135802 0.00040853 
0.000367185 -0.000232648 7.56799e-005 -0.000232648 0.00076429 -0.000130528 7.56799e-005 -0.000130528 0.000419014 
0.0003657 -0.000229626 7.3371e-005 -0.000229626 0.000766125 -0.000131403 7.3371e-005 -0.000131403 0.000434741 
0.000365458 -0.000219358 6.63218e-005 -0.000219358 0.000748492 -0.000133272 6.63218e-005 -0.000133272 0.000449361 
0.000360624 -0.000206274 5.88668e-005 -0.000206274 0.000731294 -0.000134544 5.88668e-005 -0.000134544 0.000466562 
0.000351199 -0.000191497 5.10516e-005 -0.000191497 0.000714743 -0.000135598 5.10516e-005 -0.000135598 0.000486391 
0.000341636 -0.000177912 4.87087e-005 -0.000177912 0.000697135 -0.000142962 4.87087e-005 -0.000142962 0.000505918 
0.000328583 -0.000171783 5.12947e-005 -0.000171783 0.000687211 -0.00014653 5.12947e-005 -0.00014653 0.000511612 
0.000318673 -0.000168773 5.11821e-005 -0.000168773 0.00067716 -0.000143371 5.11821e-005 -0.000143371 0.000512314 
0.000314651 -0.00016339 4.94427e-005 -0.00016339 0.000662718 -0.000127884 4.94427e-005 -0.000127884 0.000515555 
0.000313938 -0.000151604 4.71955e-005 -0.000151604 0.000644777 -0.00010488 4.71955e-005 -0.00010488 0.000530083 
0.000309648 -0.000133357 4.73132e-005 -0.000133357 0.000629549 -9.64625e-005 4.73132e-005 -9.64625e-005 0.000551076 
0.00030591 -0.000117494 4.62065e-005 -0.000117494 0.000615469 -8.78512e-005 4.62065e-005 -8.78512e-005 0.000565073 
0.000303692 -0.000104204 4.44251e-005 -0.000104204 0.000603594 -7.88124e-005 4.44251e-005 -7.88124e-005 0.000573729 
0.000303807 -9.34805e-005 4.24554e-005 -9.34805e-005 0.00059482 -6.89681e-005 4.24554e-005 -6.89681e-005 0.00057873 
0.000301761 -8.7683e-005 4.30735e-005 -8.7683e-005 0.000589158 -6.60913e-005 4.30735e-005 -6.60913e-005 0.000579816 
0.000294074 -8.40193e-005 4.50023e-005 -8.40193e-005 0.000587658 -6.86021e-005 4.50023e-005 -6.86021e-005 0.000576945 
0.000278652 -7.97769e-005 4.49422e-005 -7.97769e-005 0.000593124 -7.20956e-005 4.49422e-005 -7.20956e-005 0.000570975 
0.000265244 -7.89657e-005 4.56718e-005 -7.89657e-005 0.000604829 -7.92737e-005 4.56718e-005 -7.92737e-005 0.000568151 
0.000253697 -7.85249e-005 4.64315e-005 -7.85249e-005 0.000620939 -8.57593e-005 4.64315e-005 -8.57593e-005 0.000567083 
0.000256297 -7.2669e-005 4.33881e-005 -7.2669e-005 0.000614703 -8.7733e-005 4.33881e-005 -8.7733e-005 0.000579784 
0.000261215 -6.71428e-005 3.94849e-005 -6.71428e-005 0.000606009 -8.90006e-005 3.94849e-005 -8.90006e-005 0.000590172 
0.000267637 -6.29396e-005 3.5254e-005 -6.29396e-005 0.000595948 -9.04936e-005 3.5254e-005 -9.04936e-005 0.000598462 
0.000284688 -5.87124e-005 2.92394e-005 -5.87124e-005 0.000583685 -8.98129e-005 2.92394e-005 -8.98129e-005 0.000597043 
0.000306195 -5.54468e-005 2.25822e-005 -5.54468e-005 0.00057672 -8.87127e-005 2.25822e-005 -8.87127e-005 0.000589414 
0.000326054 -5.51614e-005 1.80513e-005 -5.51614e-005 0.000577101 -8.89199e-005 1.80513e-005 -8.89199e-005 0.000576034 
0.000340943 -5.45129e-005 1.2981e-005 -5.45129e-005 0.00057735 -8.89777e-005 1.2981e-005 -8.89777e-005 0.000563091 
0.000351037 -5.27148e-005 7.35255e-006 -5.27148e-005 0.000577672 -8.9142e-005 7.35255e-006 -8.9142e-005 0.000551507 
0.000356588 -4.90067e-005 1.09971e-006 -4.90067e-005 0.000578238 -8.97753e-005 1.09971e-006 -8.97753e-005 0.000542188 
0.000361544 -4.26488e-005 1.0796e-006 -4.26488e-005 0.00057024 -9.52074e-005 1.0796e-006 -9.52074e-005 0.000532559 
0.000370778 -3.88626e-005 5.1568e-006 -3.88626e-005 0.000559517 -0.000103898 5.1568e-006 -0.000103898 0.000522647 
0.000385739 -3.84881e-005 9.50986e-006 -3.84881e-005 0.000552075 -0.000111785 9.50986e-006 -0.000111785 0.000512621 
0.000406768 -4.19537e-005 1.42701e-005 -4.19537e-005 0.000548018 -0.00011824 1.42701e-005 -0.00011824 0.00050232 
0.000434476 -4.97269e-005 1.9479e-005 -4.97269e-005 0.000547425 -0.000122396 1.9479e-005 -0.000122396 0.000491489 
0.000458753 -5.0381e-005 2.13989e-005 -5.0381e-005 0.000540955 -0.000119176 2.13989e-005 -0.000119176 0.00049003 
0.00047963 -4.94609e-005 2.40689e-005 -4.94609e-005 0.00053136 -0.000118547 2.40689e-005 -0.000118547 0.000494678 
0.000483428 -4.99318e-005 2.40987e-005 -4.99318e-005 0.000521721 -0.000125246 2.40987e-005 -0.000125246 0.000507325 
0.000478687 -4.79448e-005 2.11294e-005 -4.79448e-005 0.000516059 -0.000135972 2.11294e-005 -0.000135972 0.000517157 
0.000471704 -4.45997e-005 1.55954e-005 -4.45997e-005 0.000513745 -0.000147176 1.55954e-005 -0.000147176 0.000522189 
0.000466359 -4.1159e-005 1.76686e-005 -4.1159e-005 0.000505092 -0.000150461 1.76686e-005 -0.000150461 0.000524644 
0.000463816 -4.04363e-005 2.38204e-005 -4.04363e-005 0.000493256 -0.000153487 2.38204e-005 -0.000153487 0.000525992 
0.000461799 -4.22804e-005 3.72863e-005 -4.22804e-005 0.000486077 -0.000154821 3.72863e-005 -0.000154821 0.000524243 
0.00045707 -4.67684e-005 5.30444e-005 -4.67684e-005 0.000492018 -0.000157315 5.30444e-005 -0.000157315 0.000521195 
0.000453468 -5.44099e-005 6.39894e-005 -5.44099e-005 0.000501307 -0.000163333 6.39894e-005 -0.000163333 0.000519519 
0.000454453 -7.11465e-005 7.00473e-005 -7.11465e-005 0.000516055 -0.000173812 7.00473e-005 -0.000173812 0.000519347 
0.000457059 -9.38623e-005 7.48499e-005 -9.38623e-005 0.000529754 -0.000189112 7.48499e-005 -0.000189112 0.000520978 
0.000460248 -0.000119852 7.96583e-005 -0.000119852 0.000540138 -0.000209234 7.96583e-005 -0.000209234 0.000524636 
0.000459239 -0.000131675 8.09409e-005 -0.000131675 0.00054412 -0.000231624 8.09409e-005 -0.000231624 0.000538298 
0.000451511 -0.000113465 7.22015e-005 -0.000113465 0.00054027 -0.00025286 7.22015e-005 -0.00025286 0.000569575 
0.000448932 -7.57197e-005 5.74286e-005 -7.57197e-005 0.000531264 -0.000265639 5.74286e-005 -0.000265639 0.000598722 
0.000451499 -3.89571e-005 4.266e-005 -3.89571e-005 0.000520086 -0.000271231 4.266e-005 -0.000271231 0.000616492 
0.000457036 -1.3351e-005 2.87275e-005 -1.3351e-005 0.000508337 -0.000277437 2.87275e-005 -0.000277437 0.000630832 
0.000465325 2.62753e-006 1.52331e-005 2.62753e-006 0.000496346 -0.000284935 1.52331e-005 -0.000284935 0.000642397 
0.000446062 -9.76696e-006 2.90309e-005 -9.76696e-006 0.000485313 -0.000286142 2.90309e-005 -0.000286142 0.000639213 
0.000425078 -2.122e-005 4.33677e-005 -2.122e-005 0.000483624 -0.000290349 4.33677e-005 -0.000290349 0.000644374 
0.00040126 -2.79052e-005 5.86262e-005 -2.79052e-005 0.000492858 -0.000288714 5.86262e-005 -0.000288714 0.000653858 
0.000382753 -3.17554e-005 7.00419e-005 -3.17554e-005 0.000497517 -0.000282968 7.00419e-005 -0.000282968 0.000665503 
0.000371031 -3.34588e-005 7.74115e-005 -3.34588e-005 0.000495824 -0.000274368 7.74115e-005 -0.000274368 0.000678647 
0.000370619 -2.73701e-005 6.64416e-005 -2.73701e-005 0.000497251 -0.000268301 6.64416e-005 -0.000268301 0.000679799 
0.000369798 -2.41207e-005 5.50762e-005 -2.41207e-005 0.000499652 -0.000268051 5.50762e-005 -0.000268051 0.000686486 
0.000367422 -2.45235e-005 4.537e-005 -2.45235e-005 0.000502777 -0.000273264 4.537e-005 -0.000273264 0.000700705 
0.000361507 -2.71556e-005 3.73723e-005 -2.71556e-005 0.000505771 -0.000281824 3.73723e-005 -0.000281824 0.000713721 
0.000355781 -3.10723e-005 3.0055e-005 -3.10723e-005 0.000511729 -0.000292138 3.0055e-005 -0.000292138 0.000725152 
0.000361842 -2.50681e-005 2.35006e-005 -2.50681e-005 0.000502504 -0.00027498 2.35006e-005 -0.00027498 0.000721971 
0.000366865 -1.85472e-005 1.92898e-005 -1.85472e-005 0.000490984 -0.000255092 1.92898e-005 -0.000255092 0.000720207 
0.000370745 -1.13692e-005 1.73912e-005 -1.13692e-005 0.000478044 -0.000233084 1.73912e-005 -0.000233084 0.000720198 
0.00037381 -3.31308e-006 1.76896e-005 -3.31308e-006 0.00046411 -0.000208942 1.76896e-005 -0.000208942 0.000721932 
0.000374633 3.42452e-006 1.40324e-005 3.42452e-006 0.000459885 -0.000198182 1.40324e-005 -0.000198182 0.00073019 
0.000368851 4.10839e-006 -2.1883e-006 4.10839e-006 0.00047735 -0.000223221 -2.1883e-006 -0.000223221 0.000754946 
0.000362287 6.91046e-006 -1.71106e-005 6.91046e-006 0.000488426 -0.00024218 -1.71106e-005 -0.00024218 0.000781238 
0.000354949 1.15977e-005 -3.03595e-005 1.15977e-005 0.000492932 -0.000254911 -3.03595e-005 -0.000254911 0.000809022 
0.000346551 1.78825e-005 -4.13666e-005 1.78825e-005 0.000491059 -0.000261287 -4.13666e-005 -0.000261287 0.000838102 
0.000338847 1.80159e-005 -4.4471e-005 1.80159e-005 0.000467671 -0.000252966 -4.4471e-005 -0.000252966 0.000853559 
0.000329962 1.16023e-005 -4.19658e-005 1.16023e-005 0.000439326 -0.000240851 -4.19658e-005 -0.000240851 0.0008609 
0.000319031 9.19591e-007 -3.62091e-005 9.19591e-007 0.000414623 -0.000229741 -3.62091e-005 -0.000229741 0.000865944 
0.000310595 -1.10792e-005 -3.19055e-005 -1.10792e-005 0.000394857 -0.000220168 -3.19055e-005 -0.000220168 0.000862888 
0.000319415 -2.12478e-005 -3.06358e-005 -2.12478e-005 0.000394642 -0.000218619 -3.06358e-005 -0.000218619 0.000846737 
0.000348157 -3.06126e-005 -2.88055e-005 -3.06126e-005 0.000417935 -0.000228571 -2.88055e-005 -0.000228571 0.000823572 
0.000373016 -4.08188e-005 -2.72976e-005 -4.08188e-005 0.000435651 -0.000238593 -2.72976e-005 -0.000238593 0.000806814 
0.000393793 -5.2127e-005 -2.58353e-005 -5.2127e-005 0.000447267 -0.000248865 -2.58353e-005 -0.000248865 0.000796733 
0.000410403 -6.47861e-005 -2.4205e-005 -6.47861e-005 0.000452439 -0.000259363 -2.4205e-005 -0.000259363 0.000793297 
0.00040603 -6.7765e-005 -2.60546e-005 -6.7765e-005 0.000455957 -0.000249286 -2.60546e-005 -0.000249286 0.000781498 
0.000396334 -6.7948e-005 -2.89488e-005 -6.7948e-005 0.000454882 -0.000236459 -2.89488e-005 -0.000236459 0.000766667 
0.000384239 -6.75754e-005 -3.02192e-005 -6.75754e-005 0.000449691 -0.000223182 -3.02192e-005 -0.000223182 0.00074793 
0.000373257 -6.85133e-005 -3.11028e-005 -6.85133e-005 0.000444648 -0.000214423 -3.11028e-005 -0.000214423 0.000726909 
0.000364602 -6.95253e-005 -3.43497e-005 -6.95253e-005 0.000441489 -0.000214999 -3.43497e-005 -0.000214999 0.000708992 
0.000356094 -6.69361e-005 -3.84853e-005 -6.69361e-005 0.000445455 -0.000224337 -3.84853e-005 -0.000224337 0.000703259 
0.000344477 -6.10735e-005 -4.19904e-005 -6.10735e-005 0.000454825 -0.000235391 -4.19904e-005 -0.000235391 0.000707659 
0.000329523 -5.17481e-005 -4.47634e-005 -5.17481e-005 0.000469768 -0.000248277 -4.47634e-005 -0.000248277 0.000722634 
0.000310928 -3.8685e-005 -4.66545e-005 -3.8685e-005 0.000490519 -0.000263257 -4.66545e-005 -0.000263257 0.000748622 
0.00029617 -3.43837e-005 -5.49998e-005 -3.43837e-005 0.00047873 -0.00025959 -5.49998e-005 -0.00025959 0.000751744 
0.000290871 -3.51482e-005 -6.87104e-005 -3.51482e-005 0.000451947 -0.000245218 -6.87104e-005 -0.000245218 0.000736013 
0.000289338 -3.23643e-005 -8.45984e-005 -3.23643e-005 0.000431117 -0.000234405 -8.45984e-005 -0.000234405 0.0007227 
0.00029105 -2.6224e-005 -0.000102752 -2.6224e-005 0.000415657 -0.000227305 -0.000102752 -0.000227305 0.000712072 
0.000295539 -1.60333e-005 -0.000121808 -1.60333e-005 0.000406504 -0.000224476 -0.000121808 -0.000224476 0.000704312 
0.000306345 2.26657e-006 -0.000125902 2.26657e-006 0.000419978 -0.000223641 -0.000125902 -0.000223641 0.000687792 
0.000314583 2.07303e-005 -0.000131488 2.07303e-005 0.000429433 -0.000220066 -0.000131488 -0.000220066 0.000670353 
0.000321501 3.97548e-005 -0.000139368 3.97548e-005 0.0004334 -0.000213978 -0.000139368 -0.000213978 0.000654806 
0.000328816 5.65564e-005 -0.000144693 5.65564e-005 0.000432298 -0.000211495 -0.000144693 -0.000211495 0.000650144 
0.000342089 6.42403e-005 -0.000146294 6.42403e-005 0.000432457 -0.000204704 -0.000146294 -0.000204704 0.000644308 
0.000358613 6.18176e-005 -0.000155475 6.18176e-005 0.000436145 -0.000201625 -0.000155475 -0.000201625 0.000658223 
0.000379302 5.57054e-005 -0.000165074 5.57054e-005 0.000439413 -0.000193823 -0.000165074 -0.000193823 0.000674559 
0.000403879 4.51164e-005 -0.000173046 4.51164e-005 0.000443704 -0.000180742 -0.000173046 -0.000180742 0.000689633 
0.000431888 2.92734e-005 -0.000177296 2.92734e-005 0.000450292 -0.000161795 -0.000177296 -0.000161795 0.000699727 
0.000457681 2.03934e-005 -0.000179183 2.03934e-005 0.000443481 -0.000141807 -0.000179183 -0.000141807 0.000692145 
0.00047486 2.26654e-005 -0.000184044 2.26654e-005 0.000424417 -0.000128335 -0.000184044 -0.000128335 0.000680768 
0.000490495 2.6672e-005 -0.000191722 2.6672e-005 0.000406744 -0.000117934 -0.000191722 -0.000117934 0.000676826 
0.000503754 2.73414e-005 -0.000199837 2.73414e-005 0.00039563 -0.000115265 -0.000199837 -0.000115265 0.000673279 
0.000509805 2.22563e-005 -0.000201873 2.22563e-005 0.000401125 -0.000118824 -0.000201873 -0.000118824 0.000647608 
0.000532696 1.98e-005 -0.000200664 1.98e-005 0.000414327 -0.000107178 -0.000200664 -0.000107178 0.000604842 
0.000557657 1.81812e-005 -0.000200964 1.81812e-005 0.000427491 -8.88458e-005 -0.000200964 -8.88458e-005 0.000564235 
0.000576338 1.14084e-005 -0.000202912 1.14084e-005 0.000439542 -6.91677e-005 -0.000202912 -6.91677e-005 0.000531633 
0.00058939 -1.11903e-006 -0.000207204 -1.11903e-006 0.000449053 -4.79571e-005 -0.000207204 -4.79571e-005 0.000505422 
0.000593254 -2.22643e-006 -0.000211365 -2.22643e-006 0.000437833 -3.65351e-005 -0.000211365 -3.65351e-005 0.00050157 
0.000592806 -2.99369e-006 -0.000210124 -2.99369e-006 0.000419008 -2.83671e-005 -0.000210124 -2.83671e-005 0.000501915 
0.000591842 -8.1438e-006 -0.000198195 -8.1438e-006 0.000399963 -1.8297e-005 -0.000198195 -1.8297e-005 0.000498045 
0.000589699 -1.52159e-005 -0.000187239 -1.52159e-005 0.000387956 -7.49622e-006 -0.000187239 -7.49622e-006 0.000493604 
0.000587725 -2.12604e-005 -0.000179503 -2.12604e-005 0.000387467 1.79603e-006 -0.000179503 1.79603e-006 0.000489856 
0.000588833 -2.24051e-005 -0.00017337 -2.24051e-005 0.000402555 6.68781e-006 -0.00017337 6.68781e-006 0.000495973 
0.000589903 -2.28296e-005 -0.000170131 -2.28296e-005 0.000421048 1.06922e-005 -0.000170131 1.06922e-005 0.000515499 
0.000591632 -2.3188e-005 -0.000169379 -2.3188e-005 0.000442624 1.43221e-005 -0.000169379 1.43221e-005 0.000548097 
0.000592275 -2.04175e-005 -0.000170938 -2.04175e-005 0.000460271 1.93365e-005 -0.000170938 1.93365e-005 0.000581655 
0.000591182 -1.20252e-005 -0.000177415 -1.20252e-005 0.00046167 3.19257e-005 -0.000177415 3.19257e-005 0.000568226 
0.00059043 -1.08304e-005 -0.000183793 -1.08304e-005 0.000462018 4.62161e-005 -0.000183793 4.62161e-005 0.000551488 
0.000588568 -1.6682e-005 -0.00018845 -1.6682e-005 0.000463609 6.07136e-005 -0.00018845 6.07136e-005 0.000542326 
0.000585438 -2.89564e-005 -0.000191552 -2.89564e-005 0.000466643 7.56327e-005 -0.000191552 7.56327e-005 0.000540191 
0.000580675 -4.67251e-005 -0.000192765 -4.67251e-005 0.00047205 9.12833e-005 -0.000192765 9.12833e-005 0.000544107 
0.000567127 -4.68529e-005 -0.000201605 -4.68529e-005 0.000464819 9.78211e-005 -0.000201605 9.78211e-005 0.000550558 
0.00055352 -4.83027e-005 -0.000205461 -4.83027e-005 0.000456386 0.000100739 -0.000205461 0.000100739 0.000549109 
0.000542588 -5.74771e-005 -0.000208649 -5.74771e-005 0.000452242 0.000102624 -0.000208649 0.000102624 0.000546697 
0.000529518 -7.21465e-005 -0.000213758 -7.21465e-005 0.000449696 0.000104401 -0.000213758 0.000104401 0.000545277 
0.000509555 -9.07269e-005 -0.000219926 -9.07269e-005 0.000448178 0.000107733 -0.000219926 0.000107733 0.000547328 
0.000477319 -9.89762e-005 -0.000211238 -9.89762e-005 0.000440975 0.000103185 -0.000211238 0.000103185 0.000556607 
0.000447536 -8.23073e-005 -0.000180752 -8.23073e-005 0.00043996 8.6236e-005 -0.000180752 8.6236e-005 0.000573702 
0.000435533 -6.59056e-005 -0.000150153 -6.59056e-005 0.000451799 6.93375e-005 -0.000150153 6.93375e-005 0.000590271 
0.000433363 -5.99877e-005 -0.000127677 -5.99877e-005 0.000462882 5.33443e-005 -0.000127677 5.33443e-005 0.000604946 
0.000437066 -6.36719e-005 -0.000113298 -6.36719e-005 0.000471211 3.54297e-005 -0.000113298 3.54297e-005 0.000617876 
0.000442572 -7.63468e-005 -0.000106979 -7.63468e-005 0.000474513 1.3764e-005 -0.000106979 1.3764e-005 0.000629005 
0.000418392 -8.00608e-005 -0.000104662 -8.00608e-005 0.000461124 1.62848e-005 -0.000104662 1.62848e-005 0.000637555 
0.000381382 -6.7738e-005 -9.34817e-005 -6.7738e-005 0.000455087 4.13853e-005 -9.34817e-005 4.13853e-005 0.000650533 
0.00035604 -5.21026e-005 -7.61456e-005 -5.21026e-005 0.000467156 7.04709e-005 -7.61456e-005 7.04709e-005 0.000667283 
0.000335243 -3.72384e-005 -5.96712e-005 -3.72384e-005 0.000481578 9.87566e-005 -5.96712e-005 9.87566e-005 0.000682905 
0.000329275 -3.0344e-005 -4.37483e-005 -3.0344e-005 0.000497872 0.000120245 -4.37483e-005 0.000120245 0.000694983 
0.000364645 -5.01807e-005 -3.3889e-005 -5.01807e-005 0.000519572 0.000120316 -3.3889e-005 0.000120316 0.000698145 
0.000392653 -6.82154e-005 -2.87188e-005 -6.82154e-005 0.000542802 0.000123656 -2.87188e-005 0.000123656 0.000706871 
0.000412277 -8.51349e-005 -2.83619e-005 -8.51349e-005 0.000565079 0.00013038 -2.83619e-005 0.00013038 0.00071918 
0.000422359 -0.000101973 -3.28714e-005 -0.000101973 0.000582938 0.000140534 -3.28714e-005 0.000140534 0.000731886 
0.000423089 -0.00010406 -3.96284e-005 -0.00010406 0.000594403 0.000138135 -3.96284e-005 0.000138135 0.000729987 
0.000431885 -9.0479e-005 -4.09547e-005 -9.0479e-005 0.000598851 0.000106121 -4.09547e-005 0.000106121 0.000715799 
0.000440216 -8.32937e-005 -4.68505e-005 -8.32937e-005 0.000592937 8.14779e-005 -4.68505e-005 8.14779e-005 0.000703556 
0.00044511 -8.16708e-005 -5.91031e-005 -8.16708e-005 0.000575906 6.39328e-005 -5.91031e-005 6.39328e-005 0.000691377 
0.0004429 -8.43622e-005 -7.95613e-005 -8.43622e-005 0.00054746 5.32097e-005 -7.95613e-005 5.32097e-005 0.000677389 
0.000426478 -8.07272e-005 -9.49119e-005 -8.07272e-005 0.000516412 4.81699e-005 -9.49119e-005 4.81699e-005 0.000676359 
0.000395205 -7.25807e-005 -0.000100196 -7.25807e-005 0.000492658 4.38673e-005 -0.000100196 4.38673e-005 0.000673474 
0.000386201 -6.40048e-005 -9.24102e-005 -6.40048e-005 0.000503034 3.85993e-005 -9.24102e-005 3.85993e-005 0.000674574 
0.000382198 -5.46762e-005 -7.83029e-005 -5.46762e-005 0.000523619 2.79845e-005 -7.83029e-005 2.79845e-005 0.000671734 
0.000376682 -4.75144e-005 -5.99026e-005 -4.75144e-005 0.000543786 1.69955e-005 -5.99026e-005 1.69955e-005 0.000664006 
0.000378972 -4.62967e-005 -4.09539e-005 -4.62967e-005 0.000566572 1.63745e-005 -4.09539e-005 1.63745e-005 0.000667215 